[Molden Format]
[Molpro variables]
_NUMVAR=  692.0000000000000    
_PATCHLEVEL=  692.0000000000000    
_EV2006= 0.3674930886769165E-01
_EV= 0.3674932534394180E-01
_KJOULE= 0.3808798324128737E-03
_KJOULE/MOL= 0.3808798324128737E-03
_CM= 0.4556335267302901E-05
_CM-1= 0.4556335267302901E-05
_KCAL= 0.1593601117815568E-02
_KCAL/MOL= 0.1593601117815568E-02
_KELVIN2006= 0.3166828861084835E-05
_KELVIN= 0.3166814820820034E-05
_HERTZ2006= 0.1519829850815779E-15
_HERTZ= 0.1519829846011223E-15
_HZ2006= 0.1519829850815779E-15
_HZ= 0.1519829846011223E-15
_TOA2006= 0.5291772490000000    
_TOA= 0.5291772090000000    
_TOANG2006= 0.5291772490000000    
_TOANG= 0.5291772090000000    
_TORAD= 0.1745329251994330E-01
_TOCM=  219474.6306700000    
_TODEBYE=  2.541580000000000    
_TOEV2006=  27.21139610000000    
_TOEV=  27.21138390000000    
_TOHERTZ2006=  6579683899900000.    
_TOHERTZ=  6579683920700000.    
_TOHZ2006=  6579683899900000.    
_TOHZ=  6579683920700000.    
_TOK2006=  315773.3000000000    
_TOK=  315774.7000000000    
_TOKCAL=  627.5096000000000    
_TOKELVIN2006=  315773.3000000000    
_TOKELVIN=  315774.7000000000    
_TOKJ=  2625.500000000000    
_TOKJOULE=  2625.500000000000    
_ANG2006=  1.889725988578923    
_ANG=  1.889726131421507    
_ANGSTROM2006=  1.889725988578923    
_ANGSTROM=  1.889726131421507    
_IGNORE_UNDEF=  2.000000000000000    
_STRICTCHECK=  0.000000000000000    
_SEW_ONEEL=  0.000000000000000    
_CPPDONE=FALSE
_DKROLL_DONE=  0.000000000000000    
_FOCKDONE=TRUE
_GRADONE=FALSE
_HESSDONE=FALSE
_INTDONE=TRUE
_SCFDONE=TRUE
_MODUL_CUDA=FALSE
_MODUL_SLATER=FALSE
_MODUL_MRCC=FALSE
_MRCC_EXEC=
_FITC_AO_SAVED=FALSE
_FITC_MO_SAVED=FALSE
_SHARED_FS=TRUE
_LSTYP=SEWARD
_INTYP=INTS
_GEOMTYP=ZMAT
_GRADTYP=ALASKA
_DIRECT=FALSE
_DKROLL=FALSE
_DKHO=FALSE
_DKHP=FALSE
_SYNCM=  0.000000000000000    
_DFTNAME=  0.000000000000000    
_DFTFUNC=  0.000000000000000    
_BASIS=USERDEF
_BASISSETS=
_ZSIGNX=
_ZSIGNY=
_ZSIGNZ=
_ZCENTRE=
_ZSYMEL=
_ZPLANE=
_ZUNIT=
_ZORIENT=  1.000000000000000    
_CHARGE=  1.000000000000000    
_SCFCHARGE=  1.000000000000000    
_MCCHARGE=  1.000000000000000    
_CICHARGE=  1.000000000000000    
_CCCHARGE=  1.000000000000000    
_NELEC=  18.00000000000000    
!NELEC=  18.00000000000000    
_SCFNELEC=  18.00000000000000    
_MCNELEC=  18.00000000000000    
_CINELEC=  18.00000000000000    
_CCNELEC=  18.00000000000000    
_SPIN=  18.00000000000000    
!SPIN=  0.000000000000000    
_SCFSPIN=  0.000000000000000    
_MCSPIN=  0.000000000000000    
_CISPIN=  0.000000000000000    
_CCSPIN=  0.000000000000000    
_STATE=  0.000000000000000    
_SCFSTATE=  0.000000000000000    
_MCSTATE=  0.000000000000000    
_CISTATE=  0.000000000000000    
_SYMMETRY=  0.000000000000000    
!SYMMETRY=  0.000000000000000    
_SCFSYMMETRY=  0.000000000000000    
_MCSYMMETRY=  0.000000000000000    
_CISYMMETRY=  0.000000000000000    
_CCSYMMETRY=  0.000000000000000    
_SCFSYMM=  0.000000000000000    
_MCSYMM=  0.000000000000000    
_CISYMM=  0.000000000000000    
_CCSYMM=  0.000000000000000    
_SCFSYM=  0.000000000000000    
_MCSYM=  0.000000000000000    
_CISYM=  0.000000000000000    
_CCSYM=  0.000000000000000    
_WEIGHT=  0.000000000000000    
_MCWEIGHT=  0.000000000000000    
_LQUANT=  0.000000000000000    
_MCLQUANT=  0.000000000000000    
_OPTCONV=  0.000000000000000    
_QSDSTEP=  0.000000000000000    
_QSDIRC=  0.000000000000000    
_PROGRAM=MATROP
_CPUSTEP=  0.000000000000000    
_SYSSTEP= 0.9999999999999787E-02
_WALLSTEP= 0.2000000000000000E-01
!PERT= 0.2000000000000000E-01
!DFMP2= 0.2000000000000000E-01
!DFSCF=  0.000000000000000    
!DFHFENERG=  0.000000000000000    
!SCSGRD=  0.000000000000000    
_ATCHARGE=  0.000000000000000    
_BASINP=  610.0000000000000    
_CARTESIAN=  610.0000000000000    
_CFIT=  610.0000000000000    
_CFIT_FRED=  610.0000000000000    
_CFIT_FRED_THR=  610.0000000000000    
_CHII2=  610.0000000000000    
_CHIRS=  610.0000000000000    
_COEFF=  610.0000000000000    
_CPU2IDX_CFIT=  610.0000000000000    
_CPU3IDX_CFIT=  610.0000000000000    
_CPUASMBL_CFIT=  610.0000000000000    
_CPUBLAS1=  610.0000000000000    
_CPUBLAS2=  610.0000000000000    
_CPUBLAS3=  610.0000000000000    
_CPUINT_DTRAF=  610.0000000000000    
_CPUSOLVE_CFIT=  610.0000000000000    
_CPUTOT=  1.690000000000000    
_CPUTR1_CFIT=  1.690000000000000    
_CPUTR2_CFIT=  1.690000000000000    
_CPUINV_CFIT=  1.690000000000000    
_CPUFIT_CFIT=  1.690000000000000    
_CPUTRANS_CFIT=  1.690000000000000    
_CPUSCREEN_CFIT=  1.690000000000000    
_CPUTRANS_DTRAF=  1.690000000000000    
_CPUTRA_DTRAF=  1.690000000000000    
_CPUTRIPL=  1.690000000000000    
_SYSTRIPL=  1.690000000000000    
_WALLTRIPL=  1.690000000000000    
_CPUCCSD=  1.690000000000000    
_SYSCCSD=  1.690000000000000    
_WALLCCSD=  1.690000000000000    
_CPUSORT=  1.690000000000000    
_SYSSORT=  1.690000000000000    
_WALLSORT=  1.690000000000000    
_CPUF12=  1.690000000000000    
_SYSF12=  1.690000000000000    
_WALLF12=  1.690000000000000    
_CPUF12B=  1.690000000000000    
_SYSF12B=  1.690000000000000    
_WALLF12B=  1.690000000000000    
_CPUTRANS=  1.690000000000000    
_SYSTRANS=  1.690000000000000    
_WALLTRANS=  1.690000000000000    
_DALTON=  1.690000000000000    
_DARW=  1.690000000000000    
_DECAY=  1.690000000000000    
_DELE_CFIT=  1.690000000000000    
_DELG_CFIT=  1.690000000000000    
_DELTA=  1.690000000000000    
_DFTEXFAC=  1.000000000000000    
_DFTFAC=  1.000000000000000    
_DFTFUN=  1.000000000000000    
_DFTFUNS=  1.000000000000000    
_DMEX=  1.000000000000000    
_DMEY=  1.000000000000000    
_DMEZ=  1.000000000000000    
_DMNX=  1.000000000000000    
_DMNY=  1.000000000000000    
_DMNZ=  1.000000000000000    
_DMSCF=  1.000000000000000    
_DMSCF_Efield=  1.000000000000000    
_DMSCF_I=  1.000000000000000    
_DMSCF_J=  1.000000000000000    
_DMSCF_K=  1.000000000000000    
_DMSCF_N1=  1.000000000000000    
_DMSCF_N2=  1.000000000000000    
_DMSCF_NUC=  1.000000000000000    
_DMSCF_T=  1.000000000000000    
_DMSCF_V=  1.000000000000000    
_DMX=  0.000000000000000    
_DMY=  0.000000000000000    
_DMZ=  0.000000000000000    
_DMZCOR=  0.000000000000000    
_DM_RHO1=  0.000000000000000    
_DM_RVAL=  0.000000000000000    
_DUMMYATOMS=  0.000000000000000    
_FREQUENCIES=  0.000000000000000    
_EDISP=  0.000000000000000    
_EEDISP=  0.000000000000000    
_EINTRA=  0.000000000000000    
_EINTRA_R12=  0.000000000000000    
_EINTER_R12=  0.000000000000000    
_EIONIC=  0.000000000000000    
_EMP2=  0.000000000000000    
_EMP2_SING=  0.000000000000000    
_EMP2_TRIP=  0.000000000000000    
_EMP2_SINGLES=  0.000000000000000    
_EMP2_SINGLES_D=  0.000000000000000    
_EMP2_SCS=  0.000000000000000    
_EMP2_STRONG=  0.000000000000000    
_EMP2_CLOSE=  0.000000000000000    
_EMP2_WEAK=  0.000000000000000    
_EMP2_DIST=  0.000000000000000    
_ECSING=  0.000000000000000    
_ECTRIP=  0.000000000000000    
_ECSINGLES=  0.000000000000000    
_EF12=  0.000000000000000    
_EF12_SING=  0.000000000000000    
_EF12_TRIP=  0.000000000000000    
_ECSING_F12=  0.000000000000000    
_ECTRIP_F12=  0.000000000000000    
_EF12_RHFRELAX=  0.000000000000000    
_EF12_RHFRELAX_C=  0.000000000000000    
_EF12_CONVSUPPRS=  0.000000000000000    
_EF12_CONVSUPPRT=  0.000000000000000    
_EF12_SINGLES=  0.000000000000000    
_EF12_SINGLES_C=  0.000000000000000    
_EF12_SCS=  0.000000000000000    
_EF12_STRONG=  0.000000000000000    
_EF12_CLOSE=  0.000000000000000    
_EF12_WEAK=  0.000000000000000    
_EF12_DIST=  0.000000000000000    
_EF12S=  0.000000000000000    
_EF12S_SING=  0.000000000000000    
_EF12S_TRIP=  0.000000000000000    
_EF12S_SCS=  0.000000000000000    
_EF12S_STRONG=  0.000000000000000    
_EF12S_CLOSE=  0.000000000000000    
_EF12S_WEAK=  0.000000000000000    
_EF12S_DIST=  0.000000000000000    
_EF12D=  0.000000000000000    
_EF12D_SING=  0.000000000000000    
_EF12D_TRIP=  0.000000000000000    
_EF12D_SCS=  0.000000000000000    
_EF12D_STRONG=  0.000000000000000    
_EF12D_CLOSE=  0.000000000000000    
_EF12D_WEAK=  0.000000000000000    
_EF12D_DIST=  0.000000000000000    
_EF12F=  0.000000000000000    
_EF12F_SING=  0.000000000000000    
_EF12F_TRIP=  0.000000000000000    
_EF12F_SCS=  0.000000000000000    
_EF12F_STRONG=  0.000000000000000    
_EF12F_CLOSE=  0.000000000000000    
_EF12F_WEAK=  0.000000000000000    
_EF12F_DIST=  0.000000000000000    
_EMP2R12_2AD=  0.000000000000000    
_EMP2R12_2A=  0.000000000000000    
_EMP2R12_2AP=  0.000000000000000    
_EMP2R12_2SAD=  0.000000000000000    
_EMP2R12_2SA=  0.000000000000000    
_EMP2R12_2SAP=  0.000000000000000    
_EMP2R12_2B=  0.000000000000000    
_EMP2_R12=  0.000000000000000    
_EMP2_R12_A=  0.000000000000000    
_EMP2_R12_AP=  0.000000000000000    
_EMP2_R12_AD=  0.000000000000000    
_EMP2_R12_2A=  0.000000000000000    
_EMP2_R12_2SA=  0.000000000000000    
_EMP2_R12_2SAP=  0.000000000000000    
_EMP2_R12_2SAD=  0.000000000000000    
_EMP2_R12_2AP=  0.000000000000000    
_EMP2_R12_DIAG=  0.000000000000000    
_EMP2_R12_STRONG=  0.000000000000000    
_EMP2_R12_CLOSE=  0.000000000000000    
_EMP2_R12_WEAK=  0.000000000000000    
_EMP2_R12_DIST=  0.000000000000000    
_EMP2_R12_SING=  0.000000000000000    
_EMP2_R12_TRIP=  0.000000000000000    
_EMP2_R12_SCS=  0.000000000000000    
_EMP2R=  0.000000000000000    
_EMP3=  0.000000000000000    
_EMP3R=  0.000000000000000    
_EMP4=  0.000000000000000    
_ENERGC=  0.000000000000000    
_ENERGCL=  0.000000000000000    
_ENERG_CC=  0.000000000000000    
_ENERG_CV=  0.000000000000000    
_ENERG_VV=  0.000000000000000    
_ENERGD=  0.000000000000000    
_ENERGD0=  0.000000000000000    
_ENERGD1=  0.000000000000000    
_ENERGD2=  0.000000000000000    
_ENERGD3=  0.000000000000000    
_ENERGD4=  0.000000000000000    
_ENERGP=  0.000000000000000    
_ENERGP0=  0.000000000000000    
_ENERGP1=  0.000000000000000    
_ENERGP2=  0.000000000000000    
_ENERGP3=  0.000000000000000    
_ENERGP4=  0.000000000000000    
_ENERGR=  0.000000000000000    
_ENERGRR=  0.000000000000000    
_ENERGS=  0.000000000000000    
_ENERGT=  0.000000000000000    
_ENERGU=  0.000000000000000    
_ENERGW=  0.000000000000000    
_ENERGY=  0.000000000000000    
_ENERGY_MP=  0.000000000000000    
_ECBS=  0.000000000000000    
_ECBSD=  0.000000000000000    
_ENUC=  38.06106386395650    
_EPDIST=  38.06106386395650    
_EPDIST_R12=  38.06106386395650    
_EPSUM=  38.06106386395650    
_EPSUM_R12=  38.06106386395650    
_EPS1= -20.65749055705188    
_EPS2= -20.65719857122781    
_EPS3= -20.65719857122781    
_EPS4= -20.65719857122781    
_EPS5= -20.65719857122781    
_EPS6= -20.65719857122781    
_EPS7= -20.65719857122781    
_EPS8= -20.65719857122781    
_EREL= -20.65719857122781    
_FLOPBLAS1= -20.65719857122781    
_FLOPBLAS2= -20.65719857122781    
_FLOPBLAS3= -20.65719857122781    
_FLOPDGM= -20.65719857122781    
_FLOPDGV= -20.65719857122781    
_FLOPMXM= -20.65719857122781    
_FLOPMXV= -20.65719857122781    
_FREQSTEP= -20.65719857122781    
!RS2GRSTATE= -20.65719857122781    
!RS2GRSYM= -20.65719857122781    
_GRADENERG= -20.65719857122781    
_GRADEXFAC=  9999.000000000000    
_GRADMETHOD=TRUE
_GRADRECORD=TRUE
_VIRIAL=TRUE
_GRADX=TRUE
_GRADY=TRUE
_GRADZ=TRUE
_GRADVAR=TRUE
_GRID=TRUE
_GRID_FREEZE=TRUE
!GRID_FREEZE= -1.000000000000000    
!GRIDREC= -1.000000000000000    
_GRID_WEIGHT_CUT= -1.000000000000000    
_GRID_BLOCKSIZE= -1.000000000000000    
_GRID_SPARSITY= -1.000000000000000    
_GRID_RMAX= -1.000000000000000    
_GTOTAL= -1.000000000000000    
_HDIA= -1.000000000000000    
_HDIACI= -1.000000000000000    
_HEAT= -1.000000000000000    
_HTOTAL= -1.000000000000000    
_INCR_CORR= -1.000000000000000    
_INCR_COUNT= -1.000000000000000    
_INCR_READY= -1.000000000000000    
_ISCHI= -1.000000000000000    
_ITERATIONS=  0.000000000000000    
_KFIT=  0.000000000000000    
_LASTNELEC=  10.00000000000000    
_LASTSPIN=  2.000000000000000    
_LASTSYM=  1.000000000000000    
_LL=  1.000000000000000    
_MASSV=  1.000000000000000    
_MIN_ITER=  1.000000000000000    
_MIXANG=  1.000000000000000    
_MIXANGCI=  1.000000000000000    
_MPP_PROG=  0.000000000000000    
_MSENERGY=  0.000000000000000    
_NACME=  0.000000000000000    
_NBAS_CFIT=  0.000000000000000    
_NEWREC=  0.000000000000000    
_NGRID=  0.000000000000000    
_NPROC_MPP=  1.000000000000000    
_NPROC_SMP=  1.000000000000000    
_NUMSTEP=  0.000000000000000    
_OPNUC=  0.000000000000000    
_OPTCONVMX=  0.000000000000000    
_OPTCONVRMS=  0.000000000000000    
_OPTGRAD=  0.000000000000000    
_OPTGRADMX=  0.000000000000000    
_OPTGRADRMS=  0.000000000000000    
_OPTRMSMAX=  0.000000000000000    
_OPTSTEP=  0.000000000000000    
_ORBITAL=  2141.200000000000    
_PAOINT_CFIT=  2141.200000000000    
_PENALTY=  2141.200000000000    
_PH1INT_CFIT=  2141.200000000000    
_PH1VEC_CFIT=  2141.200000000000    
_PH2INT_CFIT=  2141.200000000000    
_PHASE=  2141.200000000000    
_PI=  3.141592653589793    
_PMOINT_CFIT=  3.141592653589793    
_PMOVEC_CFIT=  3.141592653589793    
_POISSON_ECORR=  3.141592653589793    
_POISSON_ERROR=  3.141592653589793    
_POLXX=  3.141592653589793    
_POLXY=  3.141592653589793    
_POLXZ=  3.141592653589793    
_POLYY=  3.141592653589793    
_POLYZ=  3.141592653589793    
_POLZZ=  3.141592653589793    
_POLYX=  3.141592653589793    
_POLZX=  3.141592653589793    
_POLZY=  3.141592653589793    
_POVINT_CFIT=  3.141592653589793    
_ROOT=  3.141592653589793    
_RPDIST=  3.141592653589793    
_RPMIN=  3.141592653589793    
_RPMAX=  3.141592653589793    
_EPCON=  3.141592653589793    
_ECDIAG=  3.141592653589793    
_EPDIAG=  3.141592653589793    
!MCACT=  3.141592653589793    
!MCCLOSED=  3.141592653589793    
!MCFREEZE=  3.141592653589793    
!MCMS2=  3.141592653589793    
!MCNEL=  3.141592653589793    
!MCNSTSYM=  3.141592653589793    
!MCSTATE=  3.141592653589793    
!MCSYM=  3.141592653589793    
!MCWEIGHT=  3.141592653589793    
_SEIG_MIN= 0.2212598707150875E-01
_SEWPROP=TRUE
_SMAT=TRUE
_SMATCI=TRUE
_SSQUARED=TRUE
_STATUS=  0.000000000000000    
_SYSBLAS1=  0.000000000000000    
_SYSBLAS2=  0.000000000000000    
_SYSBLAS3=  0.000000000000000    
_SYSTEM_RC=  0.000000000000000    
_SYSTOT=  2.590000000000000    
_T1DIAG=  2.590000000000000    
_D1DIAG=  2.590000000000000    
_TASK=  2.590000000000000    
_TROV=  2.590000000000000    
_HMAT=  2.590000000000000    
_UMAT=  2.590000000000000    
_UMATCI=  2.590000000000000    
_VERSION=  2010001.000000000    
_WALLBLAS1=  2010001.000000000    
_WALLBLAS2=  2010001.000000000    
_WALLBLAS3=  2010001.000000000    
_WALLTOT=  6.540000000000000    
_ZPE=  6.540000000000000    
!DFBASIS_COUL=  6.540000000000000    
!DFBASIS_EXCH=  6.540000000000000    
!DFBASIS_MP2=  6.540000000000000    
!DFBASIS_F12K=  6.540000000000000    
!DFBASIS_CCSD=  6.540000000000000    
!RIBASIS_MP2=  6.540000000000000    
!RIBASIS_EXCH=  6.540000000000000    
_DATE=15-Oct-14
_LASTORB=MCSCF
_MACHINE=Linux-2.6.18-371.11.1.el5/uqbar.open.ac.uk(x86_64) 64 bit serial version
_METHODC=
_METHODT=
_OUTPUT=/local/asieradzka/tests_UKRmolp/hydrogen.peroxide/hydrogen.peroxide_plus_scattering/cc-pVDZ.CAS.4frozen.8active.0virtual.5states.r13CAS/geom1/outputs/target.molpro.out
_PGROUP=C2
_SEMI=
_TIME=10:56:38
_ANSATZ=
_LIBMOL=/local/software/Molpro.2010.1.26/bin/../lib/
_VDIAG=
_UDIAG=
!AOINTADDSC=
_TRANSFORM_FORCE=
_SOLVE_ITER=
_VSCF_FREQ=
_VMCSCF_FREQ=
_VCI_FREQ=
_VMP2_FREQ=
_VSCF_INTENS=
_VMCSCF_INTENS=
_VCI_INTENS=
_VMP2_INTENS=
!SURFREC=  0.000000000000000    
!POLYREC=  0.000000000000000    
!DIPREC=  0.000000000000000    
!VSCFREC=  0.000000000000000    
!VCIREC=  0.000000000000000    
!PVCIREC=  0.000000000000000    
!VMP2REC=  0.000000000000000    
!VMCSCFREC=  0.000000000000000    
!GAREC=  0.000000000000000    
!SCFORB=  21002.00000000000    
!MCORB=  21412.00000000000    
!CIOCC=  21412.00000000000    
!CICORE=  21412.00000000000    
!CICLOS=  21412.00000000000    
!UNO_OCC=  21412.00000000000    
!UNO_CLOSED=  21412.00000000000    
!CINSTSYM=  21412.00000000000    
!CIISTSYM=  21412.00000000000    
!CIISTMS2=  21412.00000000000    
!CIISTNEL=  21412.00000000000    
!CIMS2=  21412.00000000000    
!NEWMOL= -1.000000000000000    
!NEWSYM= -1.000000000000000    
!NEWORIENT= -1.000000000000000    
_SLFILES=slscratch
_NGSSTO=  9.000000000000000    
_SIN=SIN
_COS=COS
_TAN=TAN
_ACOS=ACOS
_ASIN=ASIN
_ATAN=ATAN
_COSH=COSH
_SINH=SINH
_TANH=TANH
_ABS=ABS
_MOD=MOD
_ERF=ERF
_REFC=REFC
_ERFC=ERFC
_HYPOT=HYPOT
_J0=J0
_J1=J1
_JN=JN
_GAMMA=GAMMA
_LGAMMA=LGAMMA
_Y0=Y0
_Y1=Y1
_YN=YN
_EXP=EXP
_LOG=LOG
_LOG10=LOG10
_SQRT=SQRT
_INT=INT
_NINT=NINT
_MAX=MAX
_MIN=MIN
_COSMO=  0.000000000000000    
_COSMOIT=  0.000000000000000    
_COSMOES=  0.000000000000000    
_COSMOEDS=  0.000000000000000    
_COSMOEC=  0.000000000000000    
_COSMOEDCORR=  0.000000000000000    
_FEPSI=  1.000000000000000    
_SL_IsMM=  0.000000000000000    
_SL_NSYM=  0.000000000000000    
_SL_System_BitSw=  0.000000000000000    
_SL_Unique_atoms=  0.000000000000000    
_SL_Last_energy=  0.000000000000000    
_SL_GRAD=  0.000000000000000    
_SL_MAXUPD_Hess=  5.000000000000000    
_SL_N_PRINT_COD=  5.000000000000000    
_SL_PRINT_CODES=  0.000000000000000    
_SL_BasType=  0.000000000000000    
_SL_Energy_Pred=  0.000000000000000    
_SL_New_Coords=  0.000000000000000    
_SL_Total_Nuclea=  0.000000000000000    
_SL_Highest_Mltp=  0.000000000000000    
_SL_Ref_Geom=  0.000000000000000    
_CONFIG=  0.000000000000000    
_OCC=  0.000000000000000    
_CORE=  0.000000000000000    
_CLOSED=  0.000000000000000    
_SCFOCC=  0.000000000000000    
_SCFCLOSED=  0.000000000000000    
_SCFCORE=  0.000000000000000    
_MCOCC=  0.000000000000000    
_MCCLOSED=  0.000000000000000    
_MCFROZEN=  0.000000000000000    
_MCCORE=  0.000000000000000    
_CIOCC=  0.000000000000000    
_CICLOSED=  0.000000000000000    
_CICORE=  0.000000000000000    
_CCOCC=  0.000000000000000    
_CCCLOSED=  0.000000000000000    
_CCCORE=  0.000000000000000    
_SRXC=  0.000000000000000    
_SRC=  0.000000000000000    
_SRX=  0.000000000000000    
_SRH=  0.000000000000000    
_E_EXCHANGE=  0.000000000000000    
!LATTICE= -1.000000000000000    
!NEWLATTICE=  0.000000000000000    
!LATGRAD_VAR=FALSE
!SEW_LATTICE=  1.000000000000000    
_LATGRADX=  1.000000000000000    
_LATGRADY=  1.000000000000000    
_LATGRADZ=  1.000000000000000    
!SCALTABINIT=  1.000000000000000    
!LOCAL=  0.000000000000000    
!SAVEOCC=  0.000000000000000    
!SAVEDOM= -1.000000000000000    
!RESTDOM= -1.000000000000000    
!SAVEDOM_HF= -1.000000000000000    
!RESTDOM_HF= -1.000000000000000    
!HESSREC=  0.000000000000000    
!FREQREC=  0.000000000000000    
!NMODREC=  0.000000000000000    
!GTASKS=  0.000000000000000    
!HTASKS=  0.000000000000000    
!THRCHG= 0.1000000000000000    
!DEBUG= -1.000000000000000    
!CFIT_CPHF=  0.000000000000000    
!RDOMAUX_CPHF=  3.000000000000000    
!THRAO_CPHF= 0.1000000000000000E-09
!THRMO_CPHF= 0.1000000000000000E-08
!THROV_CPHF= 0.1000000000000000E-11
!THRSW_CPHF= 0.1000000000000000E-09
!THRPROD_CPHF= 0.1000000000000000E-08
!THRAOPR_CPHF= 0.1000000000000000E-11
!CFIT_SCFGRD=  0.000000000000000    
!RDOMAUX_SCFGRD=  5.000000000000000    
!THRAO_SCFGRD= 0.1000000000000000E-09
!THRMO_SCFGRD= 0.1000000000000000E-08
!THROV_SCFGRD= 0.1000000000000000E-11
!THRSW_SCFGRD= 0.1000000000000000E-09
!THRPROD_SCFGRD= 0.1000000000000000E-08
!THRAOPR_SCFGRD= 0.1000000000000000E-11
!LOCFIT_SCF=  0.000000000000000    
!LOCFIT_MP2= -1.000000000000000    
_RIDOM=  0.000000000000000    
_FCI_METHOD=  0.000000000000000    
!CC2_METHOD=  0.000000000000000    
_BASIS2006=FALSE
_SVDDEL= -1.000000000000000    
_SVDDELA= -1.000000000000000    
_SVDDELP= -1.000000000000000    
_SVDDELF= -1.000000000000000    
_SVDDELS= -1.000000000000000    
_SVDDEL_ABS= -1.000000000000000    
_SVDDELA_ABS= -1.000000000000000    
_SVDDELP_ABS= -1.000000000000000    
_SVDDELF_ABS= -1.000000000000000    
_SVDDELS_ABS= -1.000000000000000    
_MAXBASIS=  0.000000000000000    
!OPT_CONICAL=  0.000000000000000    
!CLEARSP_JGRID=  0.000000000000000    
_SHLDTENSOR=  0.000000000000000    
_OMEGAF_S=  0.000000000000000    
_OMEGAF_T=  0.000000000000000    
_RE=  0.000000000000000    
_BE=  0.000000000000000    
_AE=  0.000000000000000    
_WE=  0.000000000000000    
_WEXE=  0.000000000000000    
_WEYE=  0.000000000000000    
_METHOD=  0.000000000000000    
_C0=  0.000000000000000    
_C0R=  0.000000000000000    
M_NAME=CASSCF(10,8)
M_CLOSED=  2.000000000000000    
M_OCC=  6.000000000000000    
GX1=  0.000000000000000    
GY1=  1.315816206000000    
GZ1=-0.1043128750000000    
GX2=  1.477198805000000    
GY2=  1.699052636000000    
GZ2= 0.8345029970000000    
GX3=  0.000000000000000    
GY3= -1.315816206000000    
GZ3=-0.1043128750000000    
GX4= -1.477198805000000    
GY4= -1.699052636000000    
GZ4= 0.8345029970000000    
_TRDMX=  0.000000000000000    
_TRDMY=  0.000000000000000    
_TRDMZ= 0.3812102459784244E-01
_QMXX=  1.317854337645496    
_TRQMXX=-0.7497314469172681E-01
_QMYY=-0.4437723927231012    
_TRQMYY= 0.1734344498320672    
_QMZZ=-0.8740819449223949    
_TRQMZZ=-0.9846130514034043E-01
_QMXY=  3.128511888041704    
_TRQMXY=-0.1558362011383844    
_QMXZ=  0.000000000000000    
_TRQMXZ=  0.000000000000000    
_QMYZ=  0.000000000000000    
_TRQMYZ=  0.000000000000000    
_QMRR= -23.52694939108079    
_TRQMRR=-0.1177607404744081    
[Atoms] Angs
O     1    8         0.0000000000        0.6962999474       -0.0551999961
H     2    1         0.7816999408        0.8990999319        0.4415999669
O     3    8         0.0000000000       -0.6962999474       -0.0551999961
H     4    1        -0.7816999408       -0.8990999319        0.4415999669
[GTO]
  1 0
 s    8  1.00
  0.1172000000D+05  0.7096459465D-03
  0.1759000000D+04  0.5467272292D-02
  0.4008000000D+03  0.2782311861D-01
  0.1137000000D+03  0.1047477397D+00
  0.3703000000D+02  0.2829208464D+00
  0.1327000000D+02  0.4484952387D+00
  0.5025000000D+01  0.2708168852D+00
  0.1013000000D+01  0.1545029161D-01
 s    8  1.00
  0.1172000000D+05 -0.3144434117D-03
  0.1759000000D+04 -0.2482137681D-02
  0.4008000000D+03 -0.1231635538D-01
  0.1137000000D+03 -0.5053891734D-01
  0.3703000000D+02 -0.1393849033D+00
  0.1327000000D+02 -0.3250774948D+00
  0.5025000000D+01 -0.2298483076D+00
  0.1013000000D+01  0.1095379347D+01
 s    1  1.00
  0.3023000000D+00  0.1000000000D+01
 p    3  1.00
  0.1770000000D+02  0.6267916628D-01
  0.3854000000D+01  0.3335365659D+00
  0.1046000000D+01  0.7412396416D+00
 p    1  1.00
  0.2753000000D+00  0.1000000000D+01
 d    1  1.00
  0.1185000000D+01  0.1000000000D+01
  
  3 0
 s    8  1.00
  0.1172000000D+05  0.7096459465D-03
  0.1759000000D+04  0.5467272292D-02
  0.4008000000D+03  0.2782311861D-01
  0.1137000000D+03  0.1047477397D+00
  0.3703000000D+02  0.2829208464D+00
  0.1327000000D+02  0.4484952387D+00
  0.5025000000D+01  0.2708168852D+00
  0.1013000000D+01  0.1545029161D-01
 s    8  1.00
  0.1172000000D+05 -0.3144434117D-03
  0.1759000000D+04 -0.2482137681D-02
  0.4008000000D+03 -0.1231635538D-01
  0.1137000000D+03 -0.5053891734D-01
  0.3703000000D+02 -0.1393849033D+00
  0.1327000000D+02 -0.3250774948D+00
  0.5025000000D+01 -0.2298483076D+00
  0.1013000000D+01  0.1095379347D+01
 s    1  1.00
  0.3023000000D+00  0.1000000000D+01
 p    3  1.00
  0.1770000000D+02  0.6267916628D-01
  0.3854000000D+01  0.3335365659D+00
  0.1046000000D+01  0.7412396416D+00
 p    1  1.00
  0.2753000000D+00  0.1000000000D+01
 d    1  1.00
  0.1185000000D+01  0.1000000000D+01
  
  2 0
 s    3  1.00
  0.1301000000D+02  0.3349872639D-01
  0.1962000000D+01  0.2348008012D+00
  0.4446000000D+00  0.8136829579D+00
 s    1  1.00
  0.1220000000D+00  0.1000000000D+01
 p    1  1.00
  0.7270000000D+00  0.1000000000D+01
  
  4 0
 s    3  1.00
  0.1301000000D+02  0.3349872639D-01
  0.1962000000D+01  0.2348008012D+00
  0.4446000000D+00  0.8136829579D+00
 s    1  1.00
  0.1220000000D+00  0.1000000000D+01
 p    1  1.00
  0.7270000000D+00  0.1000000000D+01
 
 
[MO]
 Sym=      1.1
 Ene=     -20.6575
 Spin= Alpha
 Occup=    2.000000
1 0.70777790014643
2 0.000844385190361
3 -0.002180406361384
4 0.000727688365777
5 -0.000974153952347
6 0.000271831467031
7 -0.000393235812508
8 0.000039507568363
9 -0.000247710140334
10 0.000172622295369
11 -0.000208197198899
12 0.000035574903530
13 0.000041794395064
14 0.000079164356950
15 0.000021346837105
16 0.70777790014643
17 0.000844385190361
18 -0.002180406361384
19 -0.000727688365777
20 0.000974153952347
21 0.000271831467031
22 0.000393235812508
23 -0.000039507568363
24 -0.000247710140334
25 0.000172622295369
26 -0.000208197198899
27 0.000035574903530
28 0.000041794395064
29 -0.000079164356950
30 -0.000021346837105
31 -0.000280631695054
32 0.000473808226130
33 0.000394458553309
34 -0.000027195829059
35 0.000250201778145
36 -0.000280631695054
37 0.000473808226130
38 -0.000394458553309
39 0.000027195829059
40 0.000250201778145
 Sym=      1.2
 Ene=     -20.6572
 Spin= Alpha
 Occup=    2.000000
1 0.70788875642516
2 0.000882973575893
3 -0.003662189806613
4 0.000501095470066
5 -0.000445385761440
6 0.000316871217078
7 -0.000388271241003
8 0.001347685650362
9 -0.000174534395057
10 0.000153616586994
11 -0.000144478041492
12 -0.000009138545502
13 0.000017958492222
14 0.000077666141462
15 0.000033578553752
16 -0.70788875642516
17 -0.000882973575893
18 0.003662189806613
19 0.000501095470066
20 -0.000445385761440
21 -0.000316871217078
22 -0.000388271241003
23 0.001347685650362
24 0.000174534395057
25 -0.000153616586994
26 0.000144478041492
27 0.000009138545502
28 -0.000017958492222
29 0.000077666141462
30 0.000033578553752
31 -0.000221219416248
32 0.000072506082342
33 0.000472789824779
34 0.000069558403435
35 0.000303553694133
36 0.000221219416248
37 -0.000072506082342
38 0.000472789824779
39 0.000069558403435
40 -0.000303553694133
 Sym=      2.1
 Ene=      -1.3399
 Spin= Alpha
 Occup=    2.000000
1 -0.004136454620103
2 0.32835965781806
3 0.35112496859551
4 -0.14569115641894
5 0.020950608296427
6 -0.018937648311111
7 -0.11768958377262
8 0.037642704200745
9 -0.014279709549809
10 -0.007878201091166
11 0.011310486730636
12 -0.003432285639470
13 -0.000293404190184
14 -0.001444897887207
15 0.000741118490650
16 -0.004136454620103
17 0.32835965781806
18 0.35112496859551
19 0.14569115641894
20 -0.020950608296427
21 -0.018937648311111
22 0.11768958377262
23 -0.037642704200745
24 -0.014279709549809
25 -0.007878201091166
26 0.011310486730636
27 -0.003432285639470
28 -0.000293404190184
29 0.001444897887207
30 -0.000741118490650
31 0.006774026179712
32 -0.010358419796019
33 -0.012561131430761
34 0.000401299795087
35 -0.004650377944467
36 0.006774026179712
37 -0.010358419796019
38 0.012561131430761
39 -0.000401299795087
40 -0.004650377944467
 Sym=      2.2
 Ene=      -1.0241
 Spin= Alpha
 Occup=    2.000000
1 0.001124532543014
2 0.32542864895744
3 0.40043453366187
4 -0.19865215239396
5 0.083905863055999
6 -0.024713379989614
7 -0.13675104197083
8 0.040768615213959
9 -0.019487278867394
10 -0.000177022944062
11 -0.004071635638915
12 0.004248658582977
13 0.009469138439505
14 -0.002403631810208
15 0.000661134103789
16 -0.001124532543014
17 -0.32542864895744
18 -0.40043453366187
19 -0.19865215239396
20 0.083905863055999
21 0.024713379989614
22 -0.13675104197083
23 0.040768615213959
24 0.019487278867394
25 0.000177022944062
26 0.004071635638915
27 -0.004248658582977
28 -0.009469138439505
29 -0.002403631810208
30 0.000661134103789
31 -0.004322817561208
32 -0.023021797709264
33 -0.009476048206033
34 0.004131076126745
35 -0.003423792597496
36 0.004322817561208
37 0.023021797709264
38 -0.009476048206033
39 0.004131076126745
40 0.003423792597496
 Sym=      3.2
 Ene=      -0.9734
 Spin= Alpha
 Occup=    1.986630
1 0.001929745912512
2 0.14041943658675
3 0.047038499953348
4 0.32118532425673
5 0.025240258002249
6 0.088529364516423
7 0.15415080566695
8 -0.004425991662392
9 0.022530611415571
10 0.010477088537435
11 -0.008999158379098
12 -0.001477930158337
13 -0.009496175808209
14 0.009049586059896
15 0.002367876455100
16 -0.001929745912512
17 -0.14041943658675
18 -0.047038499953348
19 0.32118532425673
20 0.025240258002249
21 -0.088529364516423
22 0.15415080566695
23 -0.004425991662392
24 -0.022530611415571
25 -0.010477088537435
26 0.008999158379098
27 0.001477930158337
28 0.009496175808209
29 0.009049586059896
30 0.002367876455100
31 0.27451155724710
32 0.042061158353473
33 -0.032181960249527
34 -0.014118858649803
35 -0.023801430959365
36 -0.27451155724710
37 -0.042061158353473
38 -0.032181960249527
39 -0.014118858649803
40 0.023801430959365
 Sym=      3.1
 Ene=      -0.7901
 Spin= Alpha
 Occup=    1.983231
1 0.001407374897034
2 0.072034865166322
3 -0.066745771142673
4 0.37624087795505
5 -0.018948134544209
6 0.10727107024982
7 0.20940904527037
8 -0.030632777893689
9 0.028266785260916
10 0.009447056097095
11 -0.004545103637605
12 -0.004901952459490
13 0.005128656924647
14 0.009662958260824
15 -0.003071767084084
16 0.001407374897034
17 0.072034865166322
18 -0.066745771142673
19 -0.37624087795505
20 0.018948134544209
21 0.10727107024982
22 -0.20940904527037
23 0.030632777893689
24 0.028266785260916
25 0.009447056097095
26 -0.004545103637605
27 -0.004901952459490
28 0.005128656924647
29 -0.009662958260824
30 0.003071767084084
31 0.30035121427016
32 0.051850017713797
33 -0.029119903456350
34 -0.010367594840263
35 -0.025607991052210
36 0.30035121427016
37 0.051850017713797
38 0.029119903456350
39 0.010367594840263
40 -0.025607991052210
 Sym=      4.1
 Ene=      -0.6091
 Spin= Alpha
 Occup=    1.959531
1 -0.000596271879460
2 -0.025672773502570
3 -0.032064751250236
4 -0.16982954258354
5 0.022602978974706
6 0.40728069457531
7 -0.14015044548332
8 0.007255327018345
9 0.28272645013081
10 -0.004852690565742
11 -0.002909059120756
12 0.007761749686498
13 -0.000553359641825
14 0.005958275268338
15 -0.017323010245007
16 -0.000596271879460
17 -0.025672773502570
18 -0.032064751250236
19 0.16982954258354
20 -0.022602978974706
21 0.40728069457531